{
  "flashCards": [
    {
      "id": 1,
      "front": "What is the capital of France?",
      "back": "Paris",
      "lastModified": "2023-12-13",
      "status": "Want to Learn"
    },
    {
      "id": 2,
      "front": "Which planet is known as the Red Planet?",
      "back": "Mars",
      "lastModified": "2023-12-13",
      "status": "Want to Learn"
    },
    {
      "id": 3,
      "front": "In which year did Nirvana release their iconic album 'Nevermind'?",
      "back": "1991",
      "lastModified": "2023-12-13",
      "status": "Want to Learn"
    },
    {
      "id": 4,
      "front": "Who is the lead guitarist of Pink Floyd?",
      "back": "David Gilmour",
      "lastModified": "2023-12-13",
      "status": "Want to Learn"
    },
    {
      "id": 5,
      "front": "Which Arctic Monkeys album features the song 'Dance Little Liar'?",
      "back": "Humbug",
      "lastModified": "2023-12-13",
      "status": "Want to Learn"
    },
    {
      "id": 6,
      "front": "What is the capital city of Japan?",
      "back": "Tokyo",
      "lastModified": "2023-12-13",
      "status": "Want to Learn"
    },
    {
      "id": 7,
      "front": "How many moons does the planet Mars have?",
      "back": "2",
      "lastModified": "2023-12-13",
      "status": "Want to Learn"
    },
    {
      "id": 8,
      "front": "Who wrote 'The Myth of Sisyphus'?",
      "back": "Albert Camus",
      "lastModified": "2023-12-13",
      "status": "Want to Learn"
    },
    {
      "id": 9,
      "front": "Which planet is known as the 'Giant of the Solar System'?",
      "back": "Jupiter",
      "lastModified": "2023-12-13",
      "status": "Want to Learn"
    },
    {
      "id": 10,
      "front": "What is the capital city of Australia?",
      "back": "Canberra",
      "lastModified": "2023-12-13",
      "status": "Want to Learn"
    },
    {
      "id": 11,
      "front": "In which year did The Beatles release their album 'Abbey Road'?",
      "back": "1969",
      "lastModified": "2023-12-13",
      "status": "Want to Learn"
    },
    {
      "id": 12,
      "front": "Who is the lead singer of Queen?",
      "back": "Freddie Mercury",
      "lastModified": "2023-12-13",
      "status": "Want to Learn"
    },
    {
      "id": 13,
      "front": "Which ocean is the largest on Earth?",
      "back": "Pacific Ocean",
      "lastModified": "2023-12-13",
      "status": "Want to Learn"
    },
    {
      "id": 14,
      "front": "How many continents are there in the world?",
      "back": "7",
      "lastModified": "2023-12-13",
      "status": "Want to Learn"
    },
    {
      "id": 15,
      "front": "What is the capital city of Brazil?",
      "back": "Brasília",
      "lastModified": "2023-12-13",
      "status": "Want to Learn"
    },
    {
      "id": 16,
      "front": "Which element has the chemical symbol 'O'?",
      "back": "Oxygen",
      "lastModified": "2023-12-13",
      "status": "Want to Learn"
    },
    {
      "id": 17,
      "front": "What is the largest mammal in the world?",
      "back": "Blue Whale",
      "lastModified": "2023-12-13",
      "status": "Want to Learn"
    },
    {
      "id": 18,
      "front": "Who wrote the play 'Hamlet'?",
      "back": "William Shakespeare",
      "lastModified": "2023-12-13",
      "status": "Want to Learn"
    },
    {
      "id": 19,
      "front": "What is the largest desert in the world?",
      "back": "Antarctic Polar Desert",
      "lastModified": "2023-12-13",
      "status": "Want to Learn"
    },
    {
      "id": 20,
      "front": "In which year did the Apollo 11 mission land the first humans on the Moon?",
      "back": "1969",
      "lastModified": "2023-12-13",
      "status": "Want to Learn"
    },
    {
      "id": 21,
      "front": "Which rock band is known for the song 'Stairway to Heaven'?",
      "back": "Led Zeppelin",
      "lastModified": "2023-12-13",
      "status": "Want to Learn"
    },
    {
      "id": 22,
      "front": "What is the capital city of South Korea?",
      "back": "Seoul",
      "lastModified": "2023-12-13",
      "status": "Want to Learn"
    },
    {
      "id": 23,
      "front": "Which gas makes up the majority of Earth's atmosphere?",
      "back": "Nitrogen",
      "lastModified": "2023-12-13",
      "status": "Want to Learn"
    },
    {
      "id": 24,
      "front": "What is the smallest prime number?",
      "back": "2",
      "lastModified": "2023-12-13",
      "status": "Want to Learn"
    },
    {
      "id": 25,
      "front": "Which river is the longest in the world?",
      "back": "Nile",
      "lastModified": "2023-12-13",
      "status": "Want to Learn"
    },
    {
      "id": 26,
      "front": "Who is the author of 'To Kill a Mockingbird'?",
      "back": "Harper Lee",
      "lastModified": "2023-12-13",
      "status": "Want to Learn"
    },
    {
      "id": 27,
      "front": "Which planet is known as the 'Morning Star'?",
      "back": "Venus",
      "lastModified": "2023-12-13",
      "status": "Want to Learn"
    },
    {
      "id": 28,
      "front": "What is the capital city of Canada?",
      "back": "Ottawa",
      "lastModified": "2023-12-13",
      "status": "Want to Learn"
    },
    {
      "id": 29,
      "front": "In which year did The Rolling Stones release the album 'Sticky Fingers'?",
      "back": "1971",
      "lastModified": "2023-12-13",
      "status": "Want to Learn"
    },
    {
      "id": 30,
      "front": "What is the capital city of China?",
      "back": "Beijing",
      "lastModified": "2023-12-13",
      "status": "Want to Learn"
    },
    {
      "id": 31,
      "front": "Who wrote 'The Great Gatsby'?",
      "back": "F. Scott Fitzgerald",
      "lastModified": "2023-12-13",
      "status": "Want to Learn"
    },
    {
      "id": 32,
      "front": "What is the largest planet in our solar system?",
      "back": "Jupiter",
      "lastModified": "2023-12-13",
      "status": "Want to Learn"
    },
    {
      "id": 33,
      "front": "In which year did Martin Luther King Jr. deliver his 'I Have a Dream' speech?",
      "back": "1963",
      "lastModified": "2023-12-13",
      "status": "Want to Learn"
    },
    {
      "id": 34,
      "front": "Who is the creator of the theory of relativity?",
      "back": "Albert Einstein",
      "lastModified": "2023-12-13",
      "status": "Want to Learn"
    },
    {
      "id": 35,
      "front": "Which famous scientist developed the laws of motion and universal gravitation?",
      "back": "Isaac Newton",
      "lastModified": "2023-12-13",
      "status": "Want to Learn"
    },
    {
      "id": 36,
      "front": "What is the currency of Japan?",
      "back": "Japanese Yen",
      "lastModified": "2023-12-13",
      "status": "Want to Learn"
    },
    {
      "id": 37,
      "front": "Who is the protagonist of J.K. Rowling's Harry Potter series?",
      "back": "Harry Potter",
      "lastModified": "2023-12-13",
      "status": "Want to Learn"
    },
    {
      "id": 38,
      "front": "What is the capital city of Russia?",
      "back": "Moscow",
      "lastModified": "2023-12-13",
      "status": "Want to Learn"
    },
    {
      "id": 39,
      "front": "In which year did the Titanic sink?",
      "back": "1912",
      "lastModified": "2023-12-13",
      "status": "Want to Learn"
    },
    {
      "id": 40,
      "front": "Who painted the Mona Lisa?",
      "back": "Leonardo da Vinci",
      "lastModified": "2023-12-13",
      "status": "Want to Learn"
    },
    {
      "id": 41,
      "front": "Which country is known as the Land of the Rising Sun?",
      "back": "Japan",
      "lastModified": "2023-12-13",
      "status": "Want to Learn"
    },
    {
      "id": 42,
      "front": "What is the chemical symbol for gold?",
      "back": "Au",
      "lastModified": "2023-12-13",
      "status": "Want to Learn"
    },
    {
      "id": 43,
      "front": "Who wrote 'Romeo and Juliet'?",
      "back": "William Shakespeare",
      "lastModified": "2023-12-13",
      "status": "Want to Learn"
    },
    {
      "id": 44,
      "front": "What is the tallest mountain on Earth?",
      "back": "Mount Everest",
      "lastModified": "2023-12-13",
      "status": "Want to Learn"
    },
    {
      "id": 45,
      "front": "In which year did the Cold War end?",
      "back": "1991",
      "lastModified": "2023-12-13",
      "status": "Want to Learn"
    },
    {
      "id": 46,
      "front": "Who is the author of '1984'?",
      "back": "George Orwell",
      "lastModified": "2023-12-13",
      "status": "Want to Learn"
    },
    {
      "id": 47,
      "front": "What is the largest bird in the world?",
      "back": "Ostrich",
      "lastModified": "2023-12-13",
      "status": "Want to Learn"
    },
    {
      "id": 48,
      "front": "Which country is known as the Land Down Under?",
      "back": "Australia",
      "lastModified": "2023-12-13",
      "status": "Want to Learn"
    },
    {
      "id": 49,
      "front": "What is the speed of light?",
      "back": "299,792 kilometers per second",
      "lastModified": "2023-12-13",
      "status": "Want to Learn"
    },
    {
      "id": 50,
      "front": "Who is the director of the film 'Inception'?",
      "back": "Christopher Nolan",
      "lastModified": "2023-12-13",
      "status": "Want to Learn"
    },
    {
      "id": 51,
      "front": "Which famous scientist developed the theory of evolution by natural selection?",
      "back": "Charles Darwin",
      "lastModified": "2023-12-13",
      "status": "Want to Learn"
    },
    {
      "id": 52,
      "front": "What is the capital city of France?",
      "back": "Paris",
      "lastModified": "2023-12-13",
      "status": "Want to Learn"
    },
    {
      "id": 53,
      "front": "Who is the lead guitarist of The Rolling Stones?",
      "back": "Keith Richards",
      "lastModified": "2023-12-13",
      "status": "Want to Learn"
    },
    {
      "id": 54,
      "front": "In which year did the Chernobyl nuclear disaster occur?",
      "back": "1986",
      "lastModified": "2023-12-13",
      "status": "Want to Learn"
    },
    {
      "id": 55,
      "front": "What is the capital city of South Africa?",
      "back": "Pretoria",
      "lastModified": "2023-12-13",
      "status": "Want to Learn"
    },
    {
      "id": 56,
      "front": "Which planet is known as the 'Red Planet'?",
      "back": "Mars",
      "lastModified": "2023-12-13",
      "status": "Want to Learn"
    },
    {
      "id": 57,
      "front": "Who is the author of 'The Catcher in the Rye'?",
      "back": "J.D. Salinger",
      "lastModified": "2023-12-13",
      "status": "Want to Learn"
    },
    {
      "id": 58,
      "front": "What is the capital city of Argentina?",
      "back": "Buenos Aires",
      "lastModified": "2023-12-13",
      "status": "Want to Learn"
    },
    {
      "id": 59,
      "front": "In which year did the Berlin Wall fall?",
      "back": "1989",
      "lastModified": "2023-12-13",
      "status": "Want to Learn"
    },
    {
      "id": 60,
      "front": "Who is the lead singer of U2?",
      "back": "Bono",
      "lastModified": "2023-12-13",
      "status": "Want to Learn"
    },
    {
      "id": 61,
      "front": "Which famous scientist developed the theory of general relativity?",
      "back": "Albert Einstein",
      "lastModified": "2023-12-13",
      "status": "Want to Learn"
    },
    {
      "id": 62,
      "front": "What is the capital city of Egypt?",
      "back": "Cairo",
      "lastModified": "2023-12-13",
      "status": "Want to Learn"
    },
    {
      "id": 63,
      "front": "In which year did Nelson Mandela become the President of South Africa?",
      "back": "1994",
      "lastModified": "2023-12-13",
      "status": "Want to Learn"
    },
    {
      "id": 64,
      "front": "Who is the lead singer of The Doors?",
      "back": "Jim Morrison",
      "lastModified": "2023-12-13",
      "status": "Want to Learn"
    },
    {
      "id": 65,
      "front": "What is the currency of India?",
      "back": "Indian Rupee",
      "lastModified": "2023-12-13",
      "status": "Want to Learn"
    },
    {
      "id": 66,
      "front": "Which gas is responsible for the Earth's greenhouse effect?",
      "back": "Carbon Dioxide (CO2)",
      "lastModified": "2023-12-13",
      "status": "Want to Learn"
    },
    {
      "id": 67,
      "front": "Who wrote 'The Lord of the Rings' trilogy?",
      "back": "J.R.R. Tolkien",
      "lastModified": "2023-12-13",
      "status": "Want to Learn"
    },
    {
      "id": 68,
      "front": "What is the largest island in the world?",
      "back": "Greenland",
      "lastModified": "2023-12-13",
      "status": "Want to Learn"
    },
    {
      "id": 69,
      "front": "In which year did the Titanic set sail on its ill-fated maiden voyage?",
      "back": "1912",
      "lastModified": "2023-12-13",
      "status": "Want to Learn"
    },
    {
      "id": 70,
      "front": "Who is the author of 'Pride and Prejudice'?",
      "back": "Jane Austen",
      "lastModified": "2023-12-13",
      "status": "Want to Learn"
    },
    {
      "id": 71,
      "front": "What is the largest animal on Earth?",
      "back": "Blue Whale",
      "lastModified": "2023-12-13",
      "status": "Want to Learn"
    },
    {
      "id": 72,
      "front": "Which element has the chemical symbol 'H'?",
      "back": "Hydrogen",
      "lastModified": "2023-12-13",
      "status": "Want to Learn"
    },
    {
      "id": 73,
      "front": "Who painted 'The Starry Night'?",
      "back": "Vincent van Gogh",
      "lastModified": "2023-12-13",
      "status": "Want to Learn"
    },
    {
      "id": 74,
      "front": "What is the capital city of Turkey?",
      "back": "Ankara",
      "lastModified": "2023-12-13",
      "status": "Want to Learn"
    },
    {
      "id": 75,
      "front": "In which year did the Soviet Union launch the first artificial satellite, Sputnik 1?",
      "back": "1957",
      "lastModified": "2023-12-13",
      "status": "Want to Learn"
    },
    {
      "id": 76,
      "front": "Who is the lead guitarist of Queen?",
      "back": "Brian May",
      "lastModified": "2023-12-13",
      "status": "Want to Learn"
    },
    {
      "id": 77,
      "front": "What is the capital city of Mexico?",
      "back": "Mexico City",
      "lastModified": "2023-12-13",
      "status": "Want to Learn"
    },
    {
      "id": 78,
      "front": "Which river is the longest in Asia?",
      "back": "Yangtze River",
      "lastModified": "2023-12-13",
      "status": "Want to Learn"
    },
    {
      "id": 79,
      "front": "What is the smallest country in the world?",
      "back": "Vatican City",
      "lastModified": "2023-12-13",
      "status": "Want to Learn"
    },
    {
      "id": 80,
      "front": "In which year did the World Wide Web become publicly accessible?",
      "back": "1991",
      "lastModified": "2023-12-13",
      "status": "Want to Learn"
    },
    {
      "id": 81,
      "front": "Who wrote 'The Odyssey'?",
      "back": "Homer",
      "lastModified": "2023-12-13",
      "status": "Want to Learn"
    },
    {
      "id": 82,
      "front": "What is the capital city of Saudi Arabia?",
      "back": "Riyadh",
      "lastModified": "2023-12-13",
      "status": "Want to Learn"
    },
    {
      "id": 83,
      "front": "Which planet is known as the 'Evening Star'?",
      "back": "Venus",
      "lastModified": "2023-12-13",
      "status": "Want to Learn"
    },
    {
      "id": 84,
      "front": "What is the largest lake in Africa?",
      "back": "Lake Victoria",
      "lastModified": "2023-12-13",
      "status": "Want to Learn"
    },
    {
      "id": 85,
      "front": "Who is the lead singer of The Who?",
      "back": "Roger Daltrey",
      "lastModified": "2023-12-13",
      "status": "Want to Learn"
    },
    {
      "id": 86,
      "front": "What is the capital city of Peru?",
      "back": "Lima",
      "lastModified": "2023-12-13",
      "status": "Want to Learn"
    },
    {
      "id": 87,
      "front": "In which year did the Berlin Airlift take place?",
      "back": "1948",
      "lastModified": "2023-12-13",
      "status": "Want to Learn"
    },
    {
      "id": 88,
      "front": "Who wrote 'The Iliad'?",
      "back": "Homer",
      "lastModified": "2023-12-13",
      "status": "Want to Learn"
    },
    {
      "id": 89,
      "front": "What is the capital city of Nigeria?",
      "back": "Abuja",
      "lastModified": "2023-12-13",
      "status": "Want to Learn"
    },
    {
      "id": 90,
      "front": "Which country is known as the Land of the Midnight Sun?",
      "back": "Norway",
      "lastModified": "2023-12-13",
      "status": "Want to Learn"
    },
    {
      "id": 91,
      "front": "What is the melting point of water in degrees Celsius?",
      "back": "0°C",
      "lastModified": "2023-12-13",
      "status": "Want to Learn"
    },
    {
      "id": 92,
      "front": "Who is the lead guitarist of AC/DC?",
      "back": "Angus Young",
      "lastModified": "2023-12-13",
      "status": "Want to Learn"
    },
    {
      "id": 93,
      "front": "In which year did the Renaissance begin?",
      "back": "14th century",
      "lastModified": "2023-12-13",
      "status": "Want to Learn"
    },
    {
      "id": 94,
      "front": "What is the capital city of Thailand?",
      "back": "Bangkok",
      "lastModified": "2023-12-13",
      "status": "Want to Learn"
    },
    {
      "id": 95,
      "front": "Which planet is known as the 'Blue Planet'?",
      "back": "Earth",
      "lastModified": "2023-12-13",
      "status": "Want to Learn"
    },
    {
      "id": 96,
      "front": "What is the largest carnivorous mammal?",
      "back": "Polar Bear",
      "lastModified": "2023-12-13",
      "status": "Want to Learn"
    },
    {
      "id": 97,
      "front": "Who wrote 'The Hitchhiker's Guide to the Galaxy'?",
      "back": "Douglas Adams",
      "lastModified": "2023-12-13",
      "status": "Want to Learn"
    },
    {
      "id": 98,
      "front": "What is the capital city of Spain?",
      "back": "Madrid",
      "lastModified": "2023-12-13",
      "status": "Want to Learn"
    },
    {
      "id": 99,
      "front": "In which year did the Magna Carta come into effect?",
      "back": "1215",
      "lastModified": "2023-12-13",
      "status": "Want to Learn"
    },
    {
      "id": 100,
      "front": "Who is the lead singer of Aerosmith?",
      "back": "Steven Tyler",
      "lastModified": "2023-12-13",
      "status": "Want to Learn"
    },
    {
      "id": 101,
      "front": "What is the capital city of Chile?",
      "back": "Santiago",
      "lastModified": "2023-12-13",
      "status": "Want to Learn"
    },
    {
      "id": 102,
      "front": "In which year did the Industrial Revolution begin?",
      "back": "18th century",
      "lastModified": "2023-12-13",
      "status": "Want to Learn"
    },
    {
      "id": 103,
      "front": "Who is the author of 'The Hobbit'?",
      "back": "J.R.R. Tolkien",
      "lastModified": "2023-12-13",
      "status": "Want to Learn"
    },
    {
      "id": 104,
      "front": "What is the capital city of South Africa?",
      "back": "Pretoria",
      "lastModified": "2023-12-13",
      "status": "Want to Learn"
    },
    {
      "id": 105,
      "front": "Which chemical element has the symbol 'Fe'?",
      "back": "Iron",
      "lastModified": "2023-12-13",
      "status": "Want to Learn"
    },
    {
      "id": 106,
      "front": "Who painted the Mona Lisa?",
      "back": "Leonardo da Vinci",
      "lastModified": "2023-12-13",
      "status": "Want to Learn"
    },
    {
      "id": 107,
      "front": "What is the smallest bone in the human body?",
      "back": "Stapes (in the ear)",
      "lastModified": "2023-12-13",
      "status": "Want to Learn"
    },
    {
      "id": 108,
      "front": "In which year did World War I begin?",
      "back": "1914",
      "lastModified": "2023-12-13",
      "status": "Want to Learn"
    },
    {
      "id": 109,
      "front": "Who wrote 'One Hundred Years of Solitude'?",
      "back": "Gabriel Garcia Marquez",
      "lastModified": "2023-12-13",
      "status": "Want to Learn"
    },
    {
      "id": 110,
      "front": "What is the capital city of Sweden?",
      "back": "Stockholm",
      "lastModified": "2023-12-13",
      "status": "Want to Learn"
    },
    {
      "id": 111,
      "front": "Which planet is known as the 'Red Planet'?",
      "back": "Mars",
      "lastModified": "2023-12-13",
      "status": "Want to Learn"
    },
    {
      "id": 112,
      "front": "What is the largest moon in our solar system?",
      "back": "Ganymede",
      "lastModified": "2023-12-13",
      "status": "Want to Learn"
    },
    {
      "id": 113,
      "front": "Who is the lead vocalist of Coldplay?",
      "back": "Chris Martin",
      "lastModified": "2023-12-13",
      "status": "Want to Learn"
    },
    {
      "id": 114,
      "front": "What is the capital city of Portugal?",
      "back": "Lisbon",
      "lastModified": "2023-12-13",
      "status": "Want to Learn"
    },
    {
      "id": 115,
      "front": "In which year did the French Revolution begin?",
      "back": "1789",
      "lastModified": "2023-12-13",
      "status": "Want to Learn"
    },
    {
      "id": 116,
      "front": "Who wrote 'The Picture of Dorian Gray'?",
      "back": "Oscar Wilde",
      "lastModified": "2023-12-13",
      "status": "Want to Learn"
    },
    {
      "id": 117,
      "front": "What is the capital city of Argentina?",
      "back": "Buenos Aires",
      "lastModified": "2023-12-13",
      "status": "Want to Learn"
    },
    {
      "id": 118,
      "front": "Which gas makes up the majority of the Sun?",
      "back": "Hydrogen",
      "lastModified": "2023-12-13",
      "status": "Want to Learn"
    },
    {
      "id": 119,
      "front": "What is the highest mountain in North America?",
      "back": "Denali",
      "lastModified": "2023-12-13",
      "status": "Want to Learn"
    },
    {
      "id": 120,
      "front": "Who is the lead guitarist of Guns N' Roses?",
      "back": "Slash",
      "lastModified": "2023-12-13",
      "status": "Want to Learn"
    },
    {
      "id": 121,
      "front": "What is the largest desert in the world?",
      "back": "Antarctic Polar Desert",
      "lastModified": "2023-12-13",
      "status": "Want to Learn"
    },
    {
      "id": 122,
      "front": "Who is the lead singer of Nirvana?",
      "back": "Kurt Cobain",
      "lastModified": "2023-12-13",
      "status": "Want to Learn"
    },
    {
      "id": 123,
      "front": "In which year did the Soviet Union launch the first human, Yuri Gagarin, into space?",
      "back": "1961",
      "lastModified": "2023-12-13",
      "status": "Want to Learn"
    },
    {
      "id": 124,
      "front": "What is the capital city of Iran?",
      "back": "Tehran",
      "lastModified": "2023-12-13",
      "status": "Want to Learn"
    },
    {
      "id": 125,
      "front": "Which country is known as the 'Land of the Rising Sun'?",
      "back": "Japan",
      "lastModified": "2023-12-13",
      "status": "Want to Learn"
    },
    {
      "id": 126,
      "front": "What is the largest organ in the human body?",
      "back": "Skin",
      "lastModified": "2023-12-13",
      "status": "Want to Learn"
    },
    {
      "id": 127,
      "front": "Who is the author of 'The Canterbury Tales'?",
      "back": "Geoffrey Chaucer",
      "lastModified": "2023-12-13",
      "status": "Want to Learn"
    },
    {
      "id": 128,
      "front": "What is the capital city of New Zealand?",
      "back": "Wellington",
      "lastModified": "2023-12-13",
      "status": "Want to Learn"
    },
    {
      "id": 129,
      "front": "In which year did the Renaissance end?",
      "back": "17th century",
      "lastModified": "2023-12-13",
      "status": "Want to Learn"
    },
    {
      "id": 130,
      "front": "Who is the lead singer of The Rolling Stones?",
      "back": "Mick Jagger",
      "lastModified": "2023-12-13",
      "status": "Want to Learn"
    },
    {
      "id": 131,
      "front": "What is the capital city of Switzerland?",
      "back": "Bern",
      "lastModified": "2023-12-13",
      "status": "Want to Learn"
    },
    {
      "id": 132,
      "front": "Which planet is known as the 'Red Planet'?",
      "back": "Mars",
      "lastModified": "2023-12-13",
      "status": "Want to Learn"
    },
    {
      "id": 133,
      "front": "What is the largest ocean on Earth?",
      "back": "Pacific Ocean",
      "lastModified": "2023-12-13",
      "status": "Want to Learn"
    },
    {
      "id": 134,
      "front": "Who wrote 'Frankenstein'?",
      "back": "Mary Shelley",
      "lastModified": "2023-12-13",
      "status": "Want to Learn"
    },
    {
      "id": 135,
      "front": "What is the capital city of South Africa?",
      "back": "Pretoria",
      "lastModified": "2023-12-13",
      "status": "Want to Learn"
    },
    {
      "id": 136,
      "front": "In which year did the Battle of Gettysburg take place?",
      "back": "1863",
      "lastModified": "2023-12-13",
      "status": "Want to Learn"
    },
    {
      "id": 137,
      "front": "Who is the lead singer of Pearl Jam?",
      "back": "Eddie Vedder",
      "lastModified": "2023-12-13",
      "status": "Want to Learn"
    },
    {
      "id": 138,
      "front": "What is the capital city of Norway?",
      "back": "Oslo",
      "lastModified": "2023-12-13",
      "status": "Want to Learn"
    },
    {
      "id": 139,
      "front": "Which gas is essential for photosynthesis?",
      "back": "Carbon Dioxide (CO2)",
      "lastModified": "2023-12-13",
      "status": "Want to Learn"
    },
    {
      "id": 140,
      "front": "In which year did the Titanic sink?",
      "back": "1912",
      "lastModified": "2023-12-13",
      "status": "Want to Learn"
    },
    {
      "id": 141,
      "front": "Who is the lead guitarist of The Eagles?",
      "back": "Joe Walsh",
      "lastModified": "2023-12-13",
      "status": "Want to Learn"
    },
    {
      "id": 142,
      "front": "What is the capital city of South Korea?",
      "back": "Seoul",
      "lastModified": "2023-12-13",
      "status": "Want to Learn"
    },
    {
      "id": 143,
      "front": "Which river is often considered the cradle of civilization?",
      "back": "Tigris and Euphrates",
      "lastModified": "2023-12-13",
      "status": "Want to Learn"
    },
    {
      "id": 144,
      "front": "Who wrote 'The Catcher in the Rye'?",
      "back": "J.D. Salinger",
      "lastModified": "2023-12-13",
      "status": "Want to Learn"
    },
    {
      "id": 145,
      "front": "What is the capital city of Austria?",
      "back": "Vienna",
      "lastModified": "2023-12-13",
      "status": "Want to Learn"
    },
    {
      "id": 146,
      "front": "In which year did the American Civil War end?",
      "back": "1865",
      "lastModified": "2023-12-13",
      "status": "Want to Learn"
    },
    {
      "id": 147,
      "front": "Who is the lead singer of The Red Hot Chili Peppers?",
      "back": "Anthony Kiedis",
      "lastModified": "2023-12-13",
      "status": "Want to Learn"
    },
    {
      "id": 148,
      "front": "What is the capital city of Russia?",
      "back": "Moscow",
      "lastModified": "2023-12-13",
      "status": "Want to Learn"
    },
    {
      "id": 149,
      "front": "Which planet is known as the 'Ringed Planet'?",
      "back": "Saturn",
      "lastModified": "2023-12-13",
      "status": "Want to Learn"
    },
    {
      "id": 150,
      "front": "What is the currency of South Africa?",
      "back": "South African Rand",
      "lastModified": "2023-12-13",
      "status": "Want to Learn"
    },
    {
      "id": 151,
      "front": "Which element has the chemical symbol 'Na'?",
      "back": "Sodium",
      "lastModified": "2023-12-13",
      "status": "Want to Learn"
    },
    {
      "id": 152,
      "front": "In which year did the Berlin Wall fall?",
      "back": "1989",
      "lastModified": "2023-12-13",
      "status": "Want to Learn"
    },
    {
      "id": 153,
      "front": "Who is the lead guitarist of Queen?",
      "back": "Brian May",
      "lastModified": "2023-12-13",
      "status": "Want to Learn"
    },
    {
      "id": 154,
      "front": "What is the capital city of Mexico?",
      "back": "Mexico City",
      "lastModified": "2023-12-13",
      "status": "Want to Learn"
    },
    {
      "id": 155,
      "front": "Which river is the longest in Africa?",
      "back": "Nile",
      "lastModified": "2023-12-13",
      "status": "Want to Learn"
    },
    {
      "id": 156,
      "front": "Who wrote 'War and Peace'?",
      "back": "Leo Tolstoy",
      "lastModified": "2023-12-13",
      "status": "Want to Learn"
    },
    {
      "id": 157,
      "front": "What is the capital city of Saudi Arabia?",
      "back": "Riyadh",
      "lastModified": "2023-12-13",
      "status": "Want to Learn"
    },
    {
      "id": 158,
      "front": "In which year did the Soviet Union dissolve?",
      "back": "1991",
      "lastModified": "2023-12-13",
      "status": "Want to Learn"
    },
    {
      "id": 159,
      "front": "Who painted 'The Starry Night'?",
      "back": "Vincent van Gogh",
      "lastModified": "2023-12-13",
      "status": "Want to Learn"
    },
    {
      "id": 160,
      "front": "What is the capital city of Egypt?",
      "back": "Cairo",
      "lastModified": "2023-12-13",
      "status": "Want to Learn"
    },
    {
      "id": 161,
      "front": "Which country is known as the 'Land of a Thousand Lakes'?",
      "back": "Finland",
      "lastModified": "2023-12-13",
      "status": "Want to Learn"
    },
    {
      "id": 162,
      "front": "What is the largest planet in our solar system?",
      "back": "Jupiter",
      "lastModified": "2023-12-13",
      "status": "Want to Learn"
    },
    {
      "id": 163,
      "front": "Who wrote 'The Great Gatsby'?",
      "back": "F. Scott Fitzgerald",
      "lastModified": "2023-12-13",
      "status": "Want to Learn"
    },
    {
      "id": 164,
      "front": "What is the capital city of Turkey?",
      "back": "Ankara",
      "lastModified": "2023-12-13",
      "status": "Want to Learn"
    },
    {
      "id": 165,
      "front": "In which year did the Renaissance begin?",
      "back": "14th century",
      "lastModified": "2023-12-13",
      "status": "Want to Learn"
    },
    {
      "id": 166,
      "front": "Who is the lead singer of U2?",
      "back": "Bono (Paul Hewson)",
      "lastModified": "2023-12-13",
      "status": "Want to Learn"
    },
    {
      "id": 167,
      "front": "What is the capital city of Argentina?",
      "back": "Buenos Aires",
      "lastModified": "2023-12-13",
      "status": "Want to Learn"
    },
    {
      "id": 168,
      "front": "Which gas makes up the majority of Earth's atmosphere?",
      "back": "Nitrogen",
      "lastModified": "2023-12-13",
      "status": "Want to Learn"
    },
    {
      "id": 169,
      "front": "What is the smallest prime number?",
      "back": "2",
      "lastModified": "2023-12-13",
      "status": "Want to Learn"
    },
    {
      "id": 170,
      "front": "Who is the lead singer of Aerosmith?",
      "back": "Steven Tyler",
      "lastModified": "2023-12-13",
      "status": "Want to Learn"
    },
    {
      "id": 171,
      "front": "What is the capital city of Chile?",
      "back": "Santiago",
      "lastModified": "2023-12-13",
      "status": "Want to Learn"
    },
    {
      "id": 172,
      "front": "In which year did the Industrial Revolution begin?",
      "back": "18th century",
      "lastModified": "2023-12-13",
      "status": "Want to Learn"
    },
    {
      "id": 173,
      "front": "Who is the author of 'The Hobbit'?",
      "back": "J.R.R. Tolkien",
      "lastModified": "2023-12-13",
      "status": "Want to Learn"
    },
    {
      "id": 174,
      "front": "What is the capital city of South Africa?",
      "back": "Pretoria",
      "lastModified": "2023-12-13",
      "status": "Want to Learn"
    },
    {
      "id": 175,
      "front": "Which chemical element has the symbol 'Fe'?",
      "back": "Iron",
      "lastModified": "2023-12-13",
      "status": "Want to Learn"
    },
    {
      "id": 176,
      "front": "Who painted the Mona Lisa?",
      "back": "Leonardo da Vinci",
      "lastModified": "2023-12-13",
      "status": "Want to Learn"
    },
    {
      "id": 177,
      "front": "What is the smallest bone in the human body?",
      "back": "Stapes (in the ear)",
      "lastModified": "2023-12-13",
      "status": "Want to Learn"
    },
    {
      "id": 178,
      "front": "Who wrote 'The Old Man and the Sea'?",
      "back": "Ernest Hemingway",
      "lastModified": "2023-12-13",
      "status": "Want to Learn"
    },
    {
      "id": 179,
      "front": "What is the capital city of South Korea?",
      "back": "Seoul",
      "lastModified": "2023-12-13",
      "status": "Want to Learn"
    },
    {
      "id": 180,
      "front": "Which gas is known as laughing gas?",
      "back": "Nitrous Oxide",
      "lastModified": "2023-12-13",
      "status": "Want to Learn"
    },
    {
      "id": 181,
      "front": "Who is the lead singer of the band Radiohead?",
      "back": "Thom Yorke",
      "lastModified": "2023-12-13",
      "status": "Want to Learn"
    },
    {
      "id": 182,
      "front": "What is the capital city of Canada?",
      "back": "Ottawa",
      "lastModified": "2023-12-13",
      "status": "Want to Learn"
    },
    {
      "id": 183,
      "front": "In which year did the Berlin Wall fall?",
      "back": "1989",
      "lastModified": "2023-12-13",
      "status": "Want to Learn"
    },
    {
      "id": 184,
      "front": "Who is the author of 'The Grapes of Wrath'?",
      "back": "John Steinbeck",
      "lastModified": "2023-12-13",
      "status": "Want to Learn"
    },
    {
      "id": 185,
      "front": "What is the capital city of Australia?",
      "back": "Canberra",
      "lastModified": "2023-12-13",
      "status": "Want to Learn"
    },
    {
      "id": 186,
      "front": "Which planet is known as the 'Red Planet'?",
      "back": "Mars",
      "lastModified": "2023-12-13",
      "status": "Want to Learn"
    },
    {
      "id": 187,
      "front": "What is the largest ocean on Earth?",
      "back": "Pacific Ocean",
      "lastModified": "2023-12-13",
      "status": "Want to Learn"
    },
    {
      "id": 188,
      "front": "Who is the lead guitarist of the band Queen?",
      "back": "Brian May",
      "lastModified": "2023-12-13",
      "status": "Want to Learn"
    },
    {
      "id": 189,
      "front": "In which year did the Renaissance period end?",
      "back": "17th century",
      "lastModified": "2023-12-13",
      "status": "Want to Learn"
    },
    {
      "id": 190,
      "front": "What is the currency of Brazil?",
      "back": "Brazilian Real",
      "lastModified": "2023-12-13",
      "status": "Want to Learn"
    },
    {
      "id": 191,
      "front": "Who wrote 'The Canterbury Tales'?",
      "back": "Geoffrey Chaucer",
      "lastModified": "2023-12-13",
      "status": "Want to Learn"
    },
    {
      "id": 192,
      "front": "What is the capital city of China?",
      "back": "Beijing",
      "lastModified": "2023-12-13",
      "status": "Want to Learn"
    },
    {
      "id": 193,
      "front": "Which gas is responsible for the Earth's ozone layer?",
      "back": "Ozone (O3)",
      "lastModified": "2023-12-13",
      "status": "Want to Learn"
    },
    {
      "id": 194,
      "front": "What is the smallest planet in our solar system?",
      "back": "Mercury",
      "lastModified": "2023-12-13",
      "status": "Want to Learn"
    },
    {
      "id": 195,
      "front": "Who is the lead singer of the band U2?",
      "back": "Bono",
      "lastModified": "2023-12-13",
      "status": "Want to Learn"
    },
    {
      "id": 196,
      "front": "In which year did the Battle of Gettysburg take place during the American Civil War?",
      "back": "1863",
      "lastModified": "2023-12-13",
      "status": "Want to Learn"
    },
    {
      "id": 197,
      "front": "What is the capital city of France?",
      "back": "Paris",
      "lastModified": "2023-12-13",
      "status": "Want to Learn"
    },
    {
      "id": 198,
      "front": "Which scientist developed the theory of general relativity?",
      "back": "Albert Einstein",
      "lastModified": "2023-12-13",
      "status": "Want to Learn"
    },
    {
      "id": 199,
      "front": "What is the chemical symbol for the element with atomic number 79?",
      "back": "Au (Gold)",
      "lastModified": "2023-12-13",
      "status": "Want to Learn"
    },
    {
      "id": 200,
      "front": "Who painted the ceiling of the Sistine Chapel?",
      "back": "Michelangelo",
      "lastModified": "2023-12-13",
      "status": "Want to Learn"
    },
    {
      "id": 201,
      "front": "In Greek mythology, who was the goddess of wisdom?",
      "back": "Athena",
      "lastModified": "2023-12-13",
      "status": "Want to Learn"
    }
  ]
}
